/*--------------------------------*- C++ -*----------------------------------*\
                                   OpenFEM
\*---------------------------------------------------------------------------*/
FoamFile
{
    version     2.0;
    format      ascii;
    class       fePointVectorField;
    object      U;
}
// * * * * * * * * * * * * * * * * * * * * * * * * * * * * * * * * * * * * * //

meshTypeI       2;
internalField   uniform (3 0 0);


// ************************************************************************* //
