/*--------------------------------*- C++ -*----------------------------------*\
                                   OpenFEM
\*---------------------------------------------------------------------------*/
FoamFile
{
    version     2.0;
    format      ascii;
    class       fePointVectorField;
    object      U;
}
// * * * * * * * * * * * * * * * * * * * * * * * * * * * * * * * * * * * * * //

meshTypeI       1;
internalField   nonuniform List<scalar>
27
(
273
274
275
276
277
278
279
280
281
282
283
284
285
286
287
288
290
291
292
293
294
295
296
297
298
299
300
)
;

// ************************************************************************* //
